2
Lattice="20.0 0.0 0.0 0.0 20.0 0.0 0.0 0.0 20.0" Properties=species:S:1:pos:R:3:REF_forces:R:3 dist=0.6 REF_energy=53.33012390136719 pbc="T T T"
Cu       0.00000000       0.00000000       0.00000000       0.00000000       0.00000000    -366.08544922
Cu       0.00000000       0.00000000       0.60000000       0.00000000       0.00000000     366.08544922
2
Lattice="20.0 0.0 0.0 0.0 20.0 0.0 0.0 0.0 20.0" Properties=species:S:1:pos:R:3:REF_forces:R:3 dist=0.7 REF_energy=29.749202728271484 pbc="T T T"
Cu       0.00000000       0.00000000       0.00000000       0.00000000       0.00000000    -140.28375244
Cu       0.00000000       0.00000000       0.70000000       0.00000000       0.00000000     140.28375244
2
Lattice="20.0 0.0 0.0 0.0 20.0 0.0 0.0 0.0 20.0" Properties=species:S:1:pos:R:3:REF_forces:R:3 dist=0.7999999999999999 REF_energy=20.730026245117188 pbc="T T T"
Cu       0.00000000       0.00000000       0.00000000       0.00000000       0.00000000     -53.96562195
Cu       0.00000000       0.00000000       0.80000000       0.00000000       0.00000000      53.96562195
2
Lattice="20.0 0.0 0.0 0.0 20.0 0.0 0.0 0.0 20.0" Properties=species:S:1:pos:R:3:REF_forces:R:3 dist=0.8999999999999999 REF_energy=17.065263748168945 pbc="T T T"
Cu       0.00000000       0.00000000       0.00000000       0.00000000       0.00000000     -26.45701027
Cu       0.00000000       0.00000000       0.90000000       0.00000000       0.00000000      26.45701027
2
Lattice="20.0 0.0 0.0 0.0 20.0 0.0 0.0 0.0 20.0" Properties=species:S:1:pos:R:3:REF_forces:R:3 dist=0.9999999999999999 REF_energy=14.61346435546875 pbc="T T T"
Cu       0.00000000       0.00000000       0.00000000       0.00000000       0.00000000     -24.80980682
Cu       0.00000000       0.00000000       1.00000000       0.00000000       0.00000000      24.80980682
2
Lattice="20.0 0.0 0.0 0.0 20.0 0.0 0.0 0.0 20.0" Properties=species:S:1:pos:R:3:REF_forces:R:3 dist=1.0999999999999999 REF_energy=12.17216968536377 pbc="T T T"
Cu       0.00000000       0.00000000       0.00000000       0.00000000       0.00000000     -23.06802750
Cu       0.00000000       0.00000000       1.10000000       0.00000000       0.00000000      23.06802750
2
Lattice="20.0 0.0 0.0 0.0 20.0 0.0 0.0 0.0 20.0" Properties=species:S:1:pos:R:3:REF_forces:R:3 dist=1.1999999999999997 REF_energy=9.71688461303711 pbc="T T T"
Cu       0.00000000       0.00000000       0.00000000       0.00000000       0.00000000     -26.91595840
Cu       0.00000000       0.00000000       1.20000000       0.00000000       0.00000000      26.91595840
2
Lattice="20.0 0.0 0.0 0.0 20.0 0.0 0.0 0.0 20.0" Properties=species:S:1:pos:R:3:REF_forces:R:3 dist=1.2999999999999998 REF_energy=6.997779846191406 pbc="T T T"
Cu       0.00000000       0.00000000       0.00000000       0.00000000       0.00000000     -25.10494995
Cu       0.00000000       0.00000000       1.30000000       0.00000000       0.00000000      25.10494995
2
Lattice="20.0 0.0 0.0 0.0 20.0 0.0 0.0 0.0 20.0" Properties=species:S:1:pos:R:3:REF_forces:R:3 dist=1.4 REF_energy=4.50025749206543 pbc="T T T"
Cu       0.00000000       0.00000000       0.00000000       0.00000000       0.00000000     -23.95881271
Cu       0.00000000       0.00000000       1.40000000       0.00000000       0.00000000      23.95881271
2
Lattice="20.0 0.0 0.0 0.0 20.0 0.0 0.0 0.0 20.0" Properties=species:S:1:pos:R:3:REF_forces:R:3 dist=1.4999999999999998 REF_energy=2.392557382583618 pbc="T T T"
Cu       0.00000000       0.00000000       0.00000000       0.00000000       0.00000000     -18.09323883
Cu       0.00000000       0.00000000       1.50000000       0.00000000       0.00000000      18.09323883
2
Lattice="20.0 0.0 0.0 0.0 20.0 0.0 0.0 0.0 20.0" Properties=species:S:1:pos:R:3:REF_forces:R:3 dist=1.5999999999999996 REF_energy=0.8118484020233154 pbc="T T T"
Cu       0.00000000       0.00000000       0.00000000       0.00000000       0.00000000     -13.96513367
Cu       0.00000000       0.00000000       1.60000000       0.00000000       0.00000000      13.96513367
2
Lattice="20.0 0.0 0.0 0.0 20.0 0.0 0.0 0.0 20.0" Properties=species:S:1:pos:R:3:REF_forces:R:3 dist=1.6999999999999997 REF_energy=-0.44778913259506226 pbc="T T T"
Cu       0.00000000       0.00000000       0.00000000       0.00000000       0.00000000     -11.33438969
Cu       0.00000000       0.00000000       1.70000000       0.00000000       0.00000000      11.33438969
2
Lattice="20.0 0.0 0.0 0.0 20.0 0.0 0.0 0.0 20.0" Properties=species:S:1:pos:R:3:REF_forces:R:3 dist=1.7999999999999998 REF_energy=-1.4837050437927246 pbc="T T T"
Cu       0.00000000       0.00000000       0.00000000       0.00000000       0.00000000      -9.39842701
Cu       0.00000000       0.00000000       1.80000000       0.00000000       0.00000000       9.39842701
2
Lattice="20.0 0.0 0.0 0.0 20.0 0.0 0.0 0.0 20.0" Properties=species:S:1:pos:R:3:REF_forces:R:3 dist=1.9 REF_energy=-2.2700424194335938 pbc="T T T"
Cu       0.00000000       0.00000000       0.00000000       0.00000000       0.00000000      -6.17405796
Cu       0.00000000       0.00000000       1.90000000       0.00000000       0.00000000       6.17405796
2
Lattice="20.0 0.0 0.0 0.0 20.0 0.0 0.0 0.0 20.0" Properties=species:S:1:pos:R:3:REF_forces:R:3 dist=1.9999999999999996 REF_energy=-2.7407729625701904 pbc="T T T"
Cu       0.00000000       0.00000000       0.00000000       0.00000000       0.00000000      -3.42790818
Cu       0.00000000       0.00000000       2.00000000       0.00000000       0.00000000       3.42790818
2
Lattice="20.0 0.0 0.0 0.0 20.0 0.0 0.0 0.0 20.0" Properties=species:S:1:pos:R:3:REF_forces:R:3 dist=2.0999999999999996 REF_energy=-2.9883742332458496 pbc="T T T"
Cu       0.00000000       0.00000000       0.00000000       0.00000000       0.00000000      -1.61359680
Cu       0.00000000       0.00000000       2.10000000       0.00000000       0.00000000       1.61359680
2
Lattice="20.0 0.0 0.0 0.0 20.0 0.0 0.0 0.0 20.0" Properties=species:S:1:pos:R:3:REF_forces:R:3 dist=2.1999999999999997 REF_energy=-3.0752182006835938 pbc="T T T"
Cu       0.00000000       0.00000000       0.00000000       0.00000000       0.00000000      -0.19140565
Cu       0.00000000       0.00000000       2.20000000       0.00000000       0.00000000       0.19140565
2
Lattice="20.0 0.0 0.0 0.0 20.0 0.0 0.0 0.0 20.0" Properties=species:S:1:pos:R:3:REF_forces:R:3 dist=2.3 REF_energy=-3.0414953231811523 pbc="T T T"
Cu       0.00000000       0.00000000       0.00000000       0.00000000       0.00000000       0.78607035
Cu       0.00000000       0.00000000       2.30000000       0.00000000       0.00000000      -0.78607035
2
Lattice="20.0 0.0 0.0 0.0 20.0 0.0 0.0 0.0 20.0" Properties=species:S:1:pos:R:3:REF_forces:R:3 dist=2.3999999999999995 REF_energy=-2.9336366653442383 pbc="T T T"
Cu       0.00000000       0.00000000       0.00000000       0.00000000       0.00000000       1.30226374
Cu       0.00000000       0.00000000       2.40000000       0.00000000       0.00000000      -1.30226374
2
Lattice="20.0 0.0 0.0 0.0 20.0 0.0 0.0 0.0 20.0" Properties=species:S:1:pos:R:3:REF_forces:R:3 dist=2.4999999999999996 REF_energy=-2.7915258407592773 pbc="T T T"
Cu       0.00000000       0.00000000       0.00000000       0.00000000       0.00000000       1.50304508
Cu       0.00000000       0.00000000       2.50000000       0.00000000       0.00000000      -1.50304508
2
Lattice="20.0 0.0 0.0 0.0 20.0 0.0 0.0 0.0 20.0" Properties=species:S:1:pos:R:3:REF_forces:R:3 dist=2.5999999999999996 REF_energy=-2.6384737491607666 pbc="T T T"
Cu       0.00000000       0.00000000       0.00000000       0.00000000       0.00000000       1.53748178
Cu       0.00000000       0.00000000       2.60000000       0.00000000       0.00000000      -1.53748178
2
Lattice="20.0 0.0 0.0 0.0 20.0 0.0 0.0 0.0 20.0" Properties=species:S:1:pos:R:3:REF_forces:R:3 dist=2.6999999999999997 REF_energy=-2.487211227416992 pbc="T T T"
Cu       0.00000000       0.00000000       0.00000000       0.00000000       0.00000000       1.47599685
Cu       0.00000000       0.00000000       2.70000000       0.00000000       0.00000000      -1.47599685
2
Lattice="20.0 0.0 0.0 0.0 20.0 0.0 0.0 0.0 20.0" Properties=species:S:1:pos:R:3:REF_forces:R:3 dist=2.7999999999999994 REF_energy=-2.344815492630005 pbc="T T T"
Cu       0.00000000       0.00000000       0.00000000       0.00000000       0.00000000       1.36826253
Cu       0.00000000       0.00000000       2.80000000       0.00000000       0.00000000      -1.36826253
2
Lattice="20.0 0.0 0.0 0.0 20.0 0.0 0.0 0.0 20.0" Properties=species:S:1:pos:R:3:REF_forces:R:3 dist=2.8999999999999995 REF_energy=-2.213536262512207 pbc="T T T"
Cu       0.00000000       0.00000000       0.00000000       0.00000000       0.00000000       1.26059532
Cu       0.00000000       0.00000000       2.90000000       0.00000000       0.00000000      -1.26059532
2
Lattice="20.0 0.0 0.0 0.0 20.0 0.0 0.0 0.0 20.0" Properties=species:S:1:pos:R:3:REF_forces:R:3 dist=2.9999999999999996 REF_energy=-2.0917441844940186 pbc="T T T"
Cu       0.00000000       0.00000000       0.00000000       0.00000000       0.00000000       1.18016064
Cu       0.00000000       0.00000000       3.00000000       0.00000000       0.00000000      -1.18016064
2
Lattice="20.0 0.0 0.0 0.0 20.0 0.0 0.0 0.0 20.0" Properties=species:S:1:pos:R:3:REF_forces:R:3 dist=3.0999999999999996 REF_energy=-1.9768197536468506 pbc="T T T"
Cu       0.00000000       0.00000000       0.00000000       0.00000000       0.00000000       1.11970711
Cu       0.00000000       0.00000000       3.10000000       0.00000000       0.00000000      -1.11970711
2
Lattice="20.0 0.0 0.0 0.0 20.0 0.0 0.0 0.0 20.0" Properties=species:S:1:pos:R:3:REF_forces:R:3 dist=3.1999999999999997 REF_energy=-1.8679155111312866 pbc="T T T"
Cu       0.00000000       0.00000000       0.00000000       0.00000000       0.00000000       1.05638385
Cu       0.00000000       0.00000000       3.20000000       0.00000000       0.00000000      -1.05638385
2
Lattice="20.0 0.0 0.0 0.0 20.0 0.0 0.0 0.0 20.0" Properties=species:S:1:pos:R:3:REF_forces:R:3 dist=3.2999999999999994 REF_energy=-1.7660341262817383 pbc="T T T"
Cu       0.00000000       0.00000000       0.00000000       0.00000000       0.00000000       0.97882056
Cu       0.00000000       0.00000000       3.30000000       0.00000000       0.00000000      -0.97882056
2
Lattice="20.0 0.0 0.0 0.0 20.0 0.0 0.0 0.0 20.0" Properties=species:S:1:pos:R:3:REF_forces:R:3 dist=3.3999999999999995 REF_energy=-1.6725490093231201 pbc="T T T"
Cu       0.00000000       0.00000000       0.00000000       0.00000000       0.00000000       0.88937032
Cu       0.00000000       0.00000000       3.40000000       0.00000000       0.00000000      -0.88937032
2
Lattice="20.0 0.0 0.0 0.0 20.0 0.0 0.0 0.0 20.0" Properties=species:S:1:pos:R:3:REF_forces:R:3 dist=3.4999999999999996 REF_energy=-1.5883841514587402 pbc="T T T"
Cu       0.00000000       0.00000000       0.00000000       0.00000000       0.00000000       0.79311883
Cu       0.00000000       0.00000000       3.50000000       0.00000000       0.00000000      -0.79311883
2
Lattice="20.0 0.0 0.0 0.0 20.0 0.0 0.0 0.0 20.0" Properties=species:S:1:pos:R:3:REF_forces:R:3 dist=3.599999999999999 REF_energy=-1.5140445232391357 pbc="T T T"
Cu       0.00000000       0.00000000       0.00000000       0.00000000       0.00000000       0.69328320
Cu       0.00000000       0.00000000       3.60000000       0.00000000       0.00000000      -0.69328320
2
Lattice="20.0 0.0 0.0 0.0 20.0 0.0 0.0 0.0 20.0" Properties=species:S:1:pos:R:3:REF_forces:R:3 dist=3.6999999999999993 REF_energy=-1.4497616291046143 pbc="T T T"
Cu       0.00000000       0.00000000       0.00000000       0.00000000       0.00000000       0.59246027
Cu       0.00000000       0.00000000       3.70000000       0.00000000       0.00000000      -0.59246027
2
Lattice="20.0 0.0 0.0 0.0 20.0 0.0 0.0 0.0 20.0" Properties=species:S:1:pos:R:3:REF_forces:R:3 dist=3.7999999999999994 REF_energy=-1.3954713344573975 pbc="T T T"
Cu       0.00000000       0.00000000       0.00000000       0.00000000       0.00000000       0.49410582
Cu       0.00000000       0.00000000       3.80000000       0.00000000       0.00000000      -0.49410582
2
Lattice="20.0 0.0 0.0 0.0 20.0 0.0 0.0 0.0 20.0" Properties=species:S:1:pos:R:3:REF_forces:R:3 dist=3.8999999999999995 REF_energy=-1.3507161140441895 pbc="T T T"
Cu       0.00000000       0.00000000       0.00000000       0.00000000       0.00000000       0.40246415
Cu       0.00000000       0.00000000       3.90000000       0.00000000       0.00000000      -0.40246415
2
Lattice="20.0 0.0 0.0 0.0 20.0 0.0 0.0 0.0 20.0" Properties=species:S:1:pos:R:3:REF_forces:R:3 dist=3.9999999999999996 REF_energy=-1.3146262168884277 pbc="T T T"
Cu       0.00000000       0.00000000       0.00000000       0.00000000       0.00000000       0.32132220
Cu       0.00000000       0.00000000       4.00000000       0.00000000       0.00000000      -0.32132220
2
Lattice="20.0 0.0 0.0 0.0 20.0 0.0 0.0 0.0 20.0" Properties=species:S:1:pos:R:3:REF_forces:R:3 dist=4.099999999999999 REF_energy=-1.2860323190689087 pbc="T T T"
Cu       0.00000000       0.00000000       0.00000000       0.00000000       0.00000000       0.25268936
Cu       0.00000000       0.00000000       4.10000000       0.00000000       0.00000000      -0.25268936
2
Lattice="20.0 0.0 0.0 0.0 20.0 0.0 0.0 0.0 20.0" Properties=species:S:1:pos:R:3:REF_forces:R:3 dist=4.199999999999999 REF_energy=-1.2636760473251343 pbc="T T T"
Cu       0.00000000       0.00000000       0.00000000       0.00000000       0.00000000       0.19636321
Cu       0.00000000       0.00000000       4.20000000       0.00000000       0.00000000      -0.19636321
2
Lattice="20.0 0.0 0.0 0.0 20.0 0.0 0.0 0.0 20.0" Properties=species:S:1:pos:R:3:REF_forces:R:3 dist=4.299999999999999 REF_energy=-1.2464081048965454 pbc="T T T"
Cu       0.00000000       0.00000000       0.00000000       0.00000000       0.00000000       0.15056038
Cu       0.00000000       0.00000000       4.30000000       0.00000000       0.00000000      -0.15056038
2
Lattice="20.0 0.0 0.0 0.0 20.0 0.0 0.0 0.0 20.0" Properties=species:S:1:pos:R:3:REF_forces:R:3 dist=4.399999999999999 REF_energy=-1.2332862615585327 pbc="T T T"
Cu       0.00000000       0.00000000       0.00000000       0.00000000       0.00000000       0.11312258
Cu       0.00000000       0.00000000       4.40000000       0.00000000       0.00000000      -0.11312258
2
Lattice="20.0 0.0 0.0 0.0 20.0 0.0 0.0 0.0 20.0" Properties=species:S:1:pos:R:3:REF_forces:R:3 dist=4.499999999999999 REF_energy=-1.2235530614852905 pbc="T T T"
Cu       0.00000000       0.00000000       0.00000000       0.00000000       0.00000000       0.08265150
Cu       0.00000000       0.00000000       4.50000000       0.00000000       0.00000000      -0.08265150
2
Lattice="20.0 0.0 0.0 0.0 20.0 0.0 0.0 0.0 20.0" Properties=species:S:1:pos:R:3:REF_forces:R:3 dist=4.599999999999999 REF_energy=-1.216529369354248 pbc="T T T"
Cu       0.00000000       0.00000000       0.00000000       0.00000000       0.00000000       0.05900437
Cu       0.00000000       0.00000000       4.60000000       0.00000000       0.00000000      -0.05900437
2
Lattice="20.0 0.0 0.0 0.0 20.0 0.0 0.0 0.0 20.0" Properties=species:S:1:pos:R:3:REF_forces:R:3 dist=4.699999999999998 REF_energy=-1.2115029096603394 pbc="T T T"
Cu       0.00000000       0.00000000       0.00000000       0.00000000       0.00000000       0.04281420
Cu       0.00000000       0.00000000       4.70000000       0.00000000       0.00000000      -0.04281420
2
Lattice="20.0 0.0 0.0 0.0 20.0 0.0 0.0 0.0 20.0" Properties=species:S:1:pos:R:3:REF_forces:R:3 dist=4.799999999999999 REF_energy=-1.2077139616012573 pbc="T T T"
Cu       0.00000000       0.00000000       0.00000000       0.00000000       0.00000000       0.03412718
Cu       0.00000000       0.00000000       4.80000000       0.00000000       0.00000000      -0.03412718
2
Lattice="20.0 0.0 0.0 0.0 20.0 0.0 0.0 0.0 20.0" Properties=species:S:1:pos:R:3:REF_forces:R:3 dist=4.899999999999999 REF_energy=-1.2044932842254639 pbc="T T T"
Cu       0.00000000       0.00000000       0.00000000       0.00000000       0.00000000       0.03086865
Cu       0.00000000       0.00000000       4.90000000       0.00000000       0.00000000      -0.03086865
2
Lattice="20.0 0.0 0.0 0.0 20.0 0.0 0.0 0.0 20.0" Properties=species:S:1:pos:R:3:REF_forces:R:3 dist=4.999999999999998 REF_energy=-1.2015119791030884 pbc="T T T"
Cu       0.00000000       0.00000000       0.00000000       0.00000000       0.00000000       0.02843004
Cu       0.00000000       0.00000000       5.00000000       0.00000000       0.00000000      -0.02843004
